data_NSSW015
	_exptl_crystal_density_diffrn 2.8952(2)
	_cell_formula_units_Z 2
	_chemical_formula_weight 324.852845
	_cell_length_a  7.19607(18)
	_cell_length_b  7.19607(18)
	_cell_length_c  7.19607(18)
	_cell_angle_alpha 90
	_cell_angle_beta  90
	_cell_angle_gamma 90
	_cell_volume 372.64(3)
	_symmetry_cell_setting 'cubic'
	_symmetry_space_group_name_H-M  'I -4 3 m'
	_symmetry_space_group_name_Hall  'I -4 2 3'
	_chemical_formula_sum  'Na2.85 S4 Sb0.85 W0.15'
	_exptl_crystal_description  'powder'
	_cell_measurement_temperature '300'
	_diffrn_ambient_temperature  '300'
	_diffrn_measurement_device_type  'KEK PF BL-8B'
	_pd_proc_ls_prof_wR_factor  0.0221
	_refine_ls_goodness_of_fit_all  2.48
	_refine_ls_R_I_factor  0.0147
	loop_
		_symmetry_equiv_pos_as_xyz
		 'x, y, z '
		 '-x, -z, y '
		 '-x, z, -y '
		 '-x, y, -z '
		 '-y, -x, z '
		 '-y, -z, x '
		 '-y, z, -x '
		 '-y, x, -z '
		 '-z, -x, y '
		 '-z, -y, x '
		 '-z, y, -x '
		 '-z, x, -y '
		 'z, -x, -y '
		 'z, -y, -x '
		 'z, y, x '
		 'z, x, y '
		 'y, -x, -z '
		 'y, -z, -x '
		 'y, z, x '
		 'y, x, z '
		 'x, -y, -z '
		 'x, -z, -y '
		 'x, z, y '
		 '-x, -y, z '
		 'x+1/2, y+1/2, z+1/2 '
		 '-x+1/2, -z+1/2, y+1/2 '
		 '-x+1/2, z+1/2, -y+1/2 '
		 '-x+1/2, y+1/2, -z+1/2 '
		 '-y+1/2, -x+1/2, z+1/2 '
		 '-y+1/2, -z+1/2, x+1/2 '
		 '-y+1/2, z+1/2, -x+1/2 '
		 '-y+1/2, x+1/2, -z+1/2 '
		 '-z+1/2, -x+1/2, y+1/2 '
		 '-z+1/2, -y+1/2, x+1/2 '
		 '-z+1/2, y+1/2, -x+1/2 '
		 '-z+1/2, x+1/2, -y+1/2 '
		 'z+1/2, -x+1/2, -y+1/2 '
		 'z+1/2, -y+1/2, -x+1/2 '
		 'z+1/2, y+1/2, x+1/2 '
		 'z+1/2, x+1/2, y+1/2 '
		 'y+1/2, -x+1/2, -z+1/2 '
		 'y+1/2, -z+1/2, -x+1/2 '
		 'y+1/2, z+1/2, x+1/2 '
		 'y+1/2, x+1/2, z+1/2 '
		 'x+1/2, -y+1/2, -z+1/2 '
		 'x+1/2, -z+1/2, -y+1/2 '
		 'x+1/2, z+1/2, y+1/2 '
		 '-x+1/2, -y+1/2, z+1/2 '
	loop_
		_atom_site_label
		_atom_site_type_symbol
		_atom_site_symmetry_multiplicity
		_atom_site_fract_x
		_atom_site_fract_y
		_atom_site_fract_z
		_atom_site_occupancy
		_atom_site_B_iso_or_equiv
		Sb  Sb5+  2 0 0 0 0.85 1.369(13)
		W   W6+   2 0 0 0 0.15 1.369(13)
		S   S2-   8 0.18377(9) 0.18377(9) 0.18377(9) 1 0
		Na  Na1+ 24 0.00(3) 0 0.5 0.2375 0
	loop_
		_atom_site_aniso_label
		_atom_site_aniso_U_11
		_atom_site_aniso_U_22
		_atom_site_aniso_U_33
		_atom_site_aniso_U_12
		_atom_site_aniso_U_13
		_atom_site_aniso_U_23
		S 0.0353(5) 0.0353(5) 0.0353(5) -0.0059(4) -0.0059(4) -0.0059(4)
		Na  0.102(10) 0.075(10) 0.022(2) 0 0 0
	loop_
		_geom_bond_atom_site_label_1
		_geom_bond_atom_site_label_2
		_geom_bond_distance
		_geom_bond_site_symmetry_1
		_geom_bond_site_symmetry_2
		Sb        S         2.2905(11) 1_555  13_555
		Sb        S         2.2905(11) 1_555   3_555
		Sb        S         2.2905(11) 1_555   2_555
		Sb        S         2.2905(11) 1_555   1_555
		S         Sb        2.2905(11) 1_555   1_555
		S         Na        2.803(7) 1_555  12_655
		S         Na        2.803(7) 1_555  10_655
		S         Na        2.803(7) 1_555  22_565
		S         Na        2.803(7) 1_555   6_565
		S         Na        2.803(7) 1_555   8_556
		S         Na        2.803(7) 1_555   1_555
		S         Na        3.123(12) 1_555  11_655
		S         Na        3.123(12) 1_555   5_555
		S         Na        3.123(12) 1_555   7_555
		S         Na        3.123(12) 1_555   2_565
		S         Na        3.123(12) 1_555   4_556
		S         Na        3.123(12) 1_555   9_655
		Na        Na        0.51(3) 1_555   8_556
		Na        Na        0.51(3) 1_555   5_555
		Na        Na        0.72(4) 1_555   4_556
		Na        S         2.803(7) 1_555   1_555
		Na        S         2.803(7) 1_555  13_556
		Na        Na        2.88(4) 1_555  26_555
		Na        S         3.123(12) 1_555   3_556
		Na        S         3.123(12) 1_555   2_555
	loop_
		_geom_angle_atom_site_label_1
		_geom_angle_atom_site_label_2
		_geom_angle_atom_site_label_3
		_geom_angle
		_geom_angle_site_symmetry_1
		_geom_angle_site_symmetry_2
		_geom_angle_site_symmetry_3
		S         Sb        S          109.471   3_555 1_555  13_555
		S         Sb        S          109.471   2_555 1_555   3_555
		S         Sb        S          109.471   2_555 1_555  13_555
		S         Sb        S          109.471   1_555 1_555   2_555
		S         Sb        S          109.471   1_555 1_555   3_555
		S         Sb        S          109.471   1_555 1_555  13_555
		Na        S         Sb         89.9(3) 12_655 1_555   1_555
		Na        S         Na         10.4(7) 10_655 1_555  12_655
		Na        S         Sb         89.9(3) 10_655 1_555   1_555
		Na        S         Na         119.999(8) 22_565 1_555  10_655
		Na        S         Na         109.6(7) 22_565 1_555  12_655
		Na        S         Sb         89.9(3) 22_565 1_555   1_555
		Na        S         Na         10.4(7)  6_565 1_555  22_565
		Na        S         Na         130.4(7)  6_565 1_555  10_655
		Na        S         Na         119.999(8)  6_565 1_555  12_655
		Na        S         Sb         89.9(3)  6_565 1_555   1_555
		Na        S         Na         109.6(7)  8_556 1_555   6_565
		Na        S         Na         119.999(8)  8_556 1_555  22_565
		Na        S         Na         119.999(8)  8_556 1_555  10_655
		Na        S         Na         130.4(7)  8_556 1_555  12_655
		Na        S         Sb         89.9(3)  8_556 1_555   1_555
		Na        S         Na         10.4(7)  1_555 1_555   8_556
		Na        S         Na         119.999(8)  1_555 1_555   6_565
		Na        S         Na         130.4(7)  1_555 1_555  22_565
		Na        S         Na         109.6(7)  1_555 1_555  10_655
		Na        S         Na         119.999(8)  1_555 1_555  12_655
		Na        S         Sb         89.9(3)  1_555 1_555   1_555
		Na        S         Na         119.20(4) 11_655 1_555   1_555
		Na        S         Na         129.4(6) 11_655 1_555   8_556
		Na        S         Na         120.16(10) 11_655 1_555   6_565
		Na        S         Na         109.9(6) 11_655 1_555  22_565
		Na        S         Na         12.4(8) 11_655 1_555  10_655
		Na        S         Na         7.6(5) 11_655 1_555  12_655
		Na        S         Sb         82.3(2) 11_655 1_555   1_555
		Na        S         Na         118.22(10)  5_555 1_555  11_655
		Na        S         Na         7.6(5)  5_555 1_555   1_555
		Na        S         Na         12.4(8)  5_555 1_555   8_556
		Na        S         Na         119.20(4)  5_555 1_555   6_565
		Na        S         Na         129.4(6)  5_555 1_555  22_565
		Na        S         Na         109.9(6)  5_555 1_555  10_655
		Na        S         Na         120.16(10)  5_555 1_555  12_655
		Na        S         Sb         82.3(2)  5_555 1_555   1_555
		Na        S         Na         127.2(4)  7_555 1_555   5_555
		Na        S         Na         109.1(6)  7_555 1_555  11_655
		Na        S         Na         129.4(6)  7_555 1_555   1_555
		Na        S         Na         119.20(4)  7_555 1_555   8_556
		Na        S         Na         12.4(8)  7_555 1_555   6_565
		Na        S         Na         7.6(5)  7_555 1_555  22_565
		Na        S         Na         120.16(10)  7_555 1_555  10_655
		Na        S         Na         109.9(6)  7_555 1_555  12_655
		Na        S         Sb         82.3(2)  7_555 1_555   1_555
		Na        S         Na         9.3(5)  2_565 1_555   7_555
		Na        S         Na         118.22(10)  2_565 1_555   5_555
		Na        S         Na         118.22(10)  2_565 1_555  11_655
		Na        S         Na         120.16(10)  2_565 1_555   1_555
		Na        S         Na         109.9(6)  2_565 1_555   8_556
		Na        S         Na         7.6(5)  2_565 1_555   6_565
		Na        S         Na         12.4(8)  2_565 1_555  22_565
		Na        S         Na         129.4(6)  2_565 1_555  10_655
		Na        S         Na         119.20(4)  2_565 1_555  12_655
		Na        S         Sb         82.3(2)  2_565 1_555   1_555
		Na        S         Na         109.1(6)  4_556 1_555   2_565
		Na        S         Na         118.22(10)  4_556 1_555   7_555
		Na        S         Na         9.3(5)  4_556 1_555   5_555
		Na        S         Na         127.2(4)  4_556 1_555  11_655
		Na        S         Na         12.4(8)  4_556 1_555   1_555
		Na        S         Na         7.6(5)  4_556 1_555   8_556
		Na        S         Na         109.9(6)  4_556 1_555   6_565
		Na        S         Na         120.16(10)  4_556 1_555  22_565
		Na        S         Na         119.20(4)  4_556 1_555  10_655
		Na        S         Na         129.4(6)  4_556 1_555  12_655
		Na        S         Sb         82.3(2)  4_556 1_555   1_555
		Na        S         Na         118.22(10)  9_655 1_555   4_556
		Na        S         Na         127.2(4)  9_655 1_555   2_565
		Na        S         Na         118.22(10)  9_655 1_555   7_555
		Na        S         Na         109.1(6)  9_655 1_555   5_555
		Na        S         Na         9.3(5)  9_655 1_555  11_655
		Na        S         Na         109.9(6)  9_655 1_555   1_555
		Na        S         Na         120.16(10)  9_655 1_555   8_556
		Na        S         Na         129.4(6)  9_655 1_555   6_565
		Na        S         Na         119.20(4)  9_655 1_555  22_565
		Na        S         Na         7.6(5)  9_655 1_555  10_655
		Na        S         Na         12.4(8)  9_655 1_555  12_655
		Na        S         Sb         82.3(2)  9_655 1_555   1_555
		Na        Na        Na         90.000    5_555 1_555   8_556
		Na        Na        Na         45.000    4_556 1_555   5_555
		Na        Na        Na         45.000    4_556 1_555   8_556
		S         Na        Na         110.1(4)  1_555 1_555   4_556
		S         Na        Na         125.2(3)  1_555 1_555   5_555
		S         Na        Na         84.8(3)  1_555 1_555   8_556
		S         Na        S          139.8(9) 13_556 1_555   1_555
		S         Na        Na         110.1(4) 13_556 1_555   4_556
		S         Na        Na         84.8(3) 13_556 1_555   5_555
		S         Na        Na         125.2(3) 13_556 1_555   8_556
		Na        Na        S          69.9(4) 26_555 1_555  13_556
		Na        Na        S          69.9(4) 26_555 1_555   1_555
		Na        Na        Na         180.000  26_555 1_555   4_556
		Na        Na        Na         135.000  26_555 1_555   5_555
		Na        Na        Na         135.000  26_555 1_555   8_556
		S         Na        Na         122.6(3)  3_556 1_555  26_555
		S         Na        S          78.07(11)  3_556 1_555  13_556
		S         Na        S          125.24(19)  3_556 1_555   1_555
		S         Na        Na         57.4(3)  3_556 1_555   4_556
		S         Na        Na         85.3(3)  3_556 1_555   5_555
		S         Na        Na         47.16(18)  3_556 1_555   8_556
		S         Na        S          114.9(7)  2_555 1_555   3_556
		S         Na        Na         122.6(3)  2_555 1_555  26_555
		S         Na        S          125.24(19)  2_555 1_555  13_556
		S         Na        S          78.07(11)  2_555 1_555   1_555
		S         Na        Na         57.4(3)  2_555 1_555   4_556
		S         Na        Na         47.16(18)  2_555 1_555   5_555
		S         Na        Na         85.3(3)  2_555 1_555   8_556
